# vtk DataFile Version 2.0
Written using VisIt writer
ASCII
DATASET RECTILINEAR_GRID
DIMENSIONS 20 20 20
X_COORDINATES 20 float
 -8.000000000000e+00  -7.157894611359e+00  -6.315789699554e+00  -5.473684310913e+00  -4.631578922272e+00  -3.789473772049e+00  -2.947368383408e+00  -2.105263233185e+00  -1.263157844543e+00 
 -4.210526347160e-01   4.210526347160e-01   1.263157844543e+00   2.105263233185e+00   2.947368383408e+00   3.789473772049e+00   4.631578922272e+00   5.473684310913e+00   6.315789699554e+00 
  7.157894611359e+00   8.000000000000e+00 
Y_COORDINATES 20 float
 -8.000000000000e+00  -7.157894611359e+00  -6.315789699554e+00  -5.473684310913e+00  -4.631578922272e+00  -3.789473772049e+00  -2.947368383408e+00  -2.105263233185e+00  -1.263157844543e+00 
 -4.210526347160e-01   4.210526347160e-01   1.263157844543e+00   2.105263233185e+00   2.947368383408e+00   3.789473772049e+00   4.631578922272e+00   5.473684310913e+00   6.315789699554e+00 
  7.157894611359e+00   8.000000000000e+00 
Z_COORDINATES 20 float
 -8.000000000000e+00  -7.157894611359e+00  -6.315789699554e+00  -5.473684310913e+00  -4.631578922272e+00  -3.789473772049e+00  -2.947368383408e+00  -2.105263233185e+00  -1.263157844543e+00 
 -4.210526347160e-01   4.210526347160e-01   1.263157844543e+00   2.105263233185e+00   2.947368383408e+00   3.789473772049e+00   4.631578922272e+00   5.473684310913e+00   6.315789699554e+00 
  7.157894611359e+00   8.000000000000e+00 
CELL_DATA 6859
POINT_DATA 8000
SCALARS Orbital(l=3,m=-3) float
LOOKUP_TABLE default
  7.309020147659e-04   1.164434244856e-03   1.749053713866e-03   2.474371809512e-03   3.297717543319e-03   4.147876054049e-03   4.940153565258e-03   5.596332252026e-03   6.059498060495e-03 
  6.297530140728e-03   6.297530140728e-03   6.059498060495e-03   5.596332252026e-03   4.940153565258e-03   4.147876054049e-03   3.297717543319e-03   2.474371809512e-03   1.749053713866e-03 
  1.164434244856e-03   7.309020147659e-04   1.164434244856e-03   1.839045085944e-03   2.726325066760e-03   3.789130132645e-03   4.940153565258e-03   6.059498060495e-03   7.030008826405e-03 
  7.771977689117e-03   8.256546221673e-03   8.491354063153e-03   8.491354063153e-03   8.256546221673e-03   7.771977689117e-03   7.030008826405e-03   6.059498060495e-03   4.940153565258e-03 
  3.789130132645e-03   2.726325066760e-03   1.839045085944e-03   1.164434244856e-03   1.749053713866e-03   2.726325066760e-03   3.965363372117e-03   5.372117739171e-03   6.783529184759e-03 
  8.016205392778e-03   8.936912752688e-03   9.512308984995e-03   9.804029949009e-03   9.913535788655e-03   9.913535788655e-03   9.804029949009e-03   9.512308984995e-03   8.936912752688e-03 
  8.016205392778e-03   6.783529184759e-03   5.372117739171e-03   3.965363372117e-03   2.726325066760e-03   1.749053713866e-03   2.474371809512e-03   3.789130132645e-03   5.372117739171e-03 
  7.030008826405e-03   8.491354063153e-03   9.512308984995e-03   9.994518011808e-03   1.003216858953e-02   9.851445443928e-03   9.689294733107e-03   9.689294733107e-03   9.851445443928e-03 
  1.003216858953e-02   9.994518011808e-03   9.512308984995e-03   8.491354063153e-03   7.030008826405e-03   5.372117739171e-03   3.789130132645e-03   2.474371809512e-03   3.297717543319e-03 
  4.940153565258e-03   6.783529184759e-03   8.491354063153e-03   9.669252671301e-03   1.005731709301e-02   9.689294733107e-03   8.882775902748e-03   8.062505163252e-03   7.567655760795e-03 
  7.567655760795e-03   8.062505163252e-03   8.882775902748e-03   9.689294733107e-03   1.005731709301e-02   9.669252671301e-03   8.491354063153e-03   6.783529184759e-03   4.940153565258e-03 
  3.297717543319e-03   4.147876054049e-03   6.059498060495e-03   8.016205392778e-03   9.512308984995e-03   1.005731709301e-02   9.475332684815e-03   8.062505163252e-03   6.422042381018e-03 
  5.108463112265e-03   4.412299953401e-03   4.412299953401e-03   5.108463112265e-03   6.422042381018e-03   8.062505163252e-03   9.475332684815e-03   1.005731709301e-02   9.512308984995e-03 
  8.016205392778e-03   6.059498060495e-03   4.147876054049e-03   4.940153565258e-03   7.030008826405e-03   8.936912752688e-03   9.994518011808e-03   9.689294733107e-03   8.062505163252e-03 
  5.782151129097e-03   3.707681084052e-03   2.342536812648e-03   1.722483546473e-03   1.722483546473e-03   2.342536812648e-03   3.707681084052e-03   5.782151129097e-03   8.062505163252e-03 
  9.689294733107e-03   9.994518011808e-03   8.936912752688e-03   7.030008826405e-03   4.940153565258e-03   5.596332252026e-03   7.771977689117e-03   9.512308984995e-03   1.003216858953e-02 
  8.882775902748e-03   6.422042381018e-03   3.707681084052e-03   1.722483546473e-03   7.163750124164e-04   3.692118625622e-04   3.692118625622e-04   7.163750124164e-04   1.722483546473e-03 
  3.707681084052e-03   6.422042381018e-03   8.882775902748e-03   1.003216858953e-02   9.512308984995e-03   7.771977689117e-03   5.596332252026e-03   6.059498060495e-03   8.256546221673e-03 
  9.804029949009e-03   9.851445443928e-03   8.062505163252e-03   5.108463112265e-03   2.342536812648e-03   7.163750124164e-04   1.414052821929e-04   2.802861672535e-05   2.802861672535e-05 
  1.414052821929e-04   7.163750124164e-04   2.342536812648e-03   5.108463112265e-03   8.062505163252e-03   9.851445443928e-03   9.804029949009e-03   8.256546221673e-03   6.059498060495e-03 
  6.297530140728e-03   8.491354063153e-03   9.913535788655e-03   9.689294733107e-03   7.567655760795e-03   4.412299953401e-03   1.722483546473e-03   3.692118625622e-04   2.802861672535e-05 
  2.596137278488e-07   2.596137278488e-07   2.802861672535e-05   3.692118625622e-04   1.722483546473e-03   4.412299953401e-03   7.567655760795e-03   9.689294733107e-03   9.913535788655e-03 
  8.491354063153e-03   6.297530140728e-03   6.297530140728e-03   8.491354063153e-03   9.913535788655e-03   9.689294733107e-03   7.567655760795e-03   4.412299953401e-03   1.722483546473e-03 
  3.692118625622e-04   2.802861672535e-05   2.596137278488e-07   2.596137278488e-07   2.802861672535e-05   3.692118625622e-04   1.722483546473e-03   4.412299953401e-03   7.567655760795e-03 
  9.689294733107e-03   9.913535788655e-03   8.491354063153e-03   6.297530140728e-03   6.059498060495e-03   8.256546221673e-03   9.804029949009e-03   9.851445443928e-03   8.062505163252e-03 
  5.108463112265e-03   2.342536812648e-03   7.163750124164e-04   1.414052821929e-04   2.802861672535e-05   2.802861672535e-05   1.414052821929e-04   7.163750124164e-04   2.342536812648e-03 
  5.108463112265e-03   8.062505163252e-03   9.851445443928e-03   9.804029949009e-03   8.256546221673e-03   6.059498060495e-03   5.596332252026e-03   7.771977689117e-03   9.512308984995e-03 
  1.003216858953e-02   8.882775902748e-03   6.422042381018e-03   3.707681084052e-03   1.722483546473e-03   7.163750124164e-04   3.692118625622e-04   3.692118625622e-04   7.163750124164e-04 
  1.722483546473e-03   3.707681084052e-03   6.422042381018e-03   8.882775902748e-03   1.003216858953e-02   9.512308984995e-03   7.771977689117e-03   5.596332252026e-03   4.940153565258e-03 
  7.030008826405e-03   8.936912752688e-03   9.994518011808e-03   9.689294733107e-03   8.062505163252e-03   5.782151129097e-03   3.707681084052e-03   2.342536812648e-03   1.722483546473e-03 
  1.722483546473e-03   2.342536812648e-03   3.707681084052e-03   5.782151129097e-03   8.062505163252e-03   9.689294733107e-03   9.994518011808e-03   8.936912752688e-03   7.030008826405e-03 
  4.940153565258e-03   4.147876054049e-03   6.059498060495e-03   8.016205392778e-03   9.512308984995e-03   1.005731709301e-02   9.475332684815e-03   8.062505163252e-03   6.422042381018e-03 
  5.108463112265e-03   4.412299953401e-03   4.412299953401e-03   5.108463112265e-03   6.422042381018e-03   8.062505163252e-03   9.475332684815e-03   1.005731709301e-02   9.512308984995e-03 
  8.016205392778e-03   6.059498060495e-03   4.147876054049e-03   3.297717543319e-03   4.940153565258e-03   6.783529184759e-03   8.491354063153e-03   9.669252671301e-03   1.005731709301e-02 
  9.689294733107e-03   8.882775902748e-03   8.062505163252e-03   7.567655760795e-03   7.567655760795e-03   8.062505163252e-03   8.882775902748e-03   9.689294733107e-03   1.005731709301e-02 
  9.669252671301e-03   8.491354063153e-03   6.783529184759e-03   4.940153565258e-03   3.297717543319e-03   2.474371809512e-03   3.789130132645e-03   5.372117739171e-03   7.030008826405e-03 
  8.491354063153e-03   9.512308984995e-03   9.994518011808e-03   1.003216858953e-02   9.851445443928e-03   9.689294733107e-03   9.689294733107e-03   9.851445443928e-03   1.003216858953e-02 
  9.994518011808e-03   9.512308984995e-03   8.491354063153e-03   7.030008826405e-03   5.372117739171e-03   3.789130132645e-03   2.474371809512e-03   1.749053713866e-03   2.726325066760e-03 
  3.965363372117e-03   5.372117739171e-03   6.783529184759e-03   8.016205392778e-03   8.936912752688e-03   9.512308984995e-03   9.804029949009e-03   9.913535788655e-03   9.913535788655e-03 
  9.804029949009e-03   9.512308984995e-03   8.936912752688e-03   8.016205392778e-03   6.783529184759e-03   5.372117739171e-03   3.965363372117e-03   2.726325066760e-03   1.749053713866e-03 
  1.164434244856e-03   1.839045085944e-03   2.726325066760e-03   3.789130132645e-03   4.940153565258e-03   6.059498060495e-03   7.030008826405e-03   7.771977689117e-03   8.256546221673e-03 
  8.491354063153e-03   8.491354063153e-03   8.256546221673e-03   7.771977689117e-03   7.030008826405e-03   6.059498060495e-03   4.940153565258e-03   3.789130132645e-03   2.726325066760e-03 
  1.839045085944e-03   1.164434244856e-03   7.309020147659e-04   1.164434244856e-03   1.749053713866e-03   2.474371809512e-03   3.297717543319e-03   4.147876054049e-03   4.940153565258e-03 
  5.596332252026e-03   6.059498060495e-03   6.297530140728e-03   6.297530140728e-03   6.059498060495e-03   5.596332252026e-03   4.940153565258e-03   4.147876054049e-03   3.297717543319e-03 
  2.474371809512e-03   1.749053713866e-03   1.164434244856e-03   7.309020147659e-04   1.595829613507e-03   2.615465084091e-03   4.039997700602e-03   5.871792323887e-03   8.026570081711e-03 
  1.032995153219e-02   1.254750415683e-02   1.443791668862e-02   1.580355502665e-02   1.651614345610e-02   1.651614345610e-02   1.580355502665e-02   1.443791668862e-02   1.254750415683e-02 
  1.032995153219e-02   8.026570081711e-03   5.871792323887e-03   4.039997700602e-03   2.615465084091e-03   1.595829613507e-03   2.615465084091e-03   4.263621289283e-03   6.523014046252e-03 
  9.348415769637e-03   1.254750415683e-02   1.580355502665e-02   1.875930279493e-02   2.112203463912e-02   2.272751927376e-02   2.352807298303e-02   2.352807298303e-02   2.272751927376e-02 
  2.112203463912e-02   1.875930279493e-02   1.580355502665e-02   1.254750415683e-02   9.348415769637e-03   6.523014046252e-03   4.263621289283e-03   2.615465084091e-03   4.039997700602e-03 
  6.523014046252e-03   9.828849695623e-03   1.378628890961e-02   1.799550838768e-02   2.192407660186e-02   2.510034665465e-02   2.729354612529e-02   2.855597436428e-02   2.909956127405e-02 
  2.909956127405e-02   2.855597436428e-02   2.729354612529e-02   2.510034665465e-02   2.192407660186e-02   1.799550838768e-02   1.378628890961e-02   9.828849695623e-03   6.523014046252e-03 
  4.039997700602e-03   5.871792323887e-03   9.348415769637e-03   1.378628890961e-02   1.875930279493e-02   2.352807298303e-02   2.729354612529e-02   2.957056462765e-02   3.042895719409e-02 
  3.040994144976e-02   3.018269129097e-02   3.018269129097e-02   3.040994144976e-02   3.042895719409e-02   2.957056462765e-02   2.729354612529e-02   2.352807298303e-02   1.875930279493e-02 
  1.378628890961e-02   9.348415769637e-03   5.871792323887e-03   8.026570081711e-03   1.254750415683e-02   1.799550838768e-02   2.352807298303e-02   2.795062400401e-02   3.024782054126e-02 
  3.018269129097e-02   2.847513370216e-02   2.637743204832e-02   2.502214536071e-02   2.502214536071e-02   2.637743204832e-02   2.847513370216e-02   3.018269129097e-02   3.024782054126e-02 
  2.795062400401e-02   2.352807298303e-02   1.799550838768e-02   1.254750415683e-02   8.026570081711e-03   1.032995153219e-02   1.580355502665e-02   2.192407660186e-02   2.729354612529e-02 
  3.024782054126e-02   2.979255653918e-02   2.637743204832e-02   2.170807309449e-02   1.767566055059e-02   1.545408181846e-02   1.545408181846e-02   1.767566055059e-02   2.170807309449e-02 
  2.637743204832e-02   2.979255653918e-02   3.024782054126e-02   2.729354612529e-02   2.192407660186e-02   1.580355502665e-02   1.032995153219e-02   1.254750415683e-02   1.875930279493e-02 
  2.510034665465e-02   2.957056462765e-02   3.018269129097e-02   2.637743204832e-02   1.977123692632e-02   1.315021328628e-02   8.529687300324e-03   6.358928978443e-03   6.358928978443e-03 
  8.529687300324e-03   1.315021328628e-02   1.977123692632e-02   2.637743204832e-02   3.018269129097e-02   2.957056462765e-02   2.510034665465e-02   1.875930279493e-02   1.254750415683e-02 
  1.443791668862e-02   2.112203463912e-02   2.729354612529e-02   3.042895719409e-02   2.847513370216e-02   2.170807309449e-02   1.315021328628e-02   6.358928978443e-03   2.722281496972e-03 
  1.424533315003e-03   1.424533315003e-03   2.722281496972e-03   6.358928978443e-03   1.315021328628e-02   2.170807309449e-02   2.847513370216e-02   3.042895719409e-02   2.729354612529e-02 
  2.112203463912e-02   1.443791668862e-02   1.580355502665e-02   2.272751927376e-02   2.855597436428e-02   3.040994144976e-02   2.637743204832e-02   1.767566055059e-02   8.529687300324e-03 
  2.722281496972e-03   5.542411818169e-04   1.116648927564e-04   1.116648927564e-04   5.542411818169e-04   2.722281496972e-03   8.529687300324e-03   1.767566055059e-02   2.637743204832e-02 
  3.040994144976e-02   2.855597436428e-02   2.272751927376e-02   1.580355502665e-02   1.651614345610e-02   2.352807298303e-02   2.909956127405e-02   3.018269129097e-02   2.502214536071e-02 
  1.545408181846e-02   6.358928978443e-03   1.424533315003e-03   1.116648927564e-04   1.051926460605e-06   1.051926460605e-06   1.116648927564e-04   1.424533315003e-03   6.358928978443e-03 
  1.545408181846e-02   2.502214536071e-02   3.018269129097e-02   2.909956127405e-02   2.352807298303e-02   1.651614345610e-02   1.651614345610e-02   2.352807298303e-02   2.909956127405e-02 
  3.018269129097e-02   2.502214536071e-02   1.545408181846e-02   6.358928978443e-03   1.424533315003e-03   1.116648927564e-04   1.051926460605e-06   1.051926460605e-06   1.116648927564e-04 
  1.424533315003e-03   6.358928978443e-03   1.545408181846e-02   2.502214536071e-02   3.018269129097e-02   2.909956127405e-02   2.352807298303e-02   1.651614345610e-02   1.580355502665e-02 
  2.272751927376e-02   2.855597436428e-02   3.040994144976e-02   2.637743204832e-02   1.767566055059e-02   8.529687300324e-03   2.722281496972e-03   5.542411818169e-04   1.116648927564e-04 
  1.116648927564e-04   5.542411818169e-04   2.722281496972e-03   8.529687300324e-03   1.767566055059e-02   2.637743204832e-02   3.040994144976e-02   2.855597436428e-02   2.272751927376e-02 
  1.580355502665e-02   1.443791668862e-02   2.112203463912e-02   2.729354612529e-02   3.042895719409e-02   2.847513370216e-02   2.170807309449e-02   1.315021328628e-02   6.358928978443e-03 
  2.722281496972e-03   1.424533315003e-03   1.424533315003e-03   2.722281496972e-03   6.358928978443e-03   1.315021328628e-02   2.170807309449e-02   2.847513370216e-02   3.042895719409e-02 
  2.729354612529e-02   2.112203463912e-02   1.443791668862e-02   1.254750415683e-02   1.875930279493e-02   2.510034665465e-02   2.957056462765e-02   3.018269129097e-02   2.637743204832e-02 
  1.977123692632e-02   1.315021328628e-02   8.529687300324e-03   6.358928978443e-03   6.358928978443e-03   8.529687300324e-03   1.315021328628e-02   1.977123692632e-02   2.637743204832e-02 
  3.018269129097e-02   2.957056462765e-02   2.510034665465e-02   1.875930279493e-02   1.254750415683e-02   1.032995153219e-02   1.580355502665e-02   2.192407660186e-02   2.729354612529e-02 
  3.024782054126e-02   2.979255653918e-02   2.637743204832e-02   2.170807309449e-02   1.767566055059e-02   1.545408181846e-02   1.545408181846e-02   1.767566055059e-02   2.170807309449e-02 
  2.637743204832e-02   2.979255653918e-02   3.024782054126e-02   2.729354612529e-02   2.192407660186e-02   1.580355502665e-02   1.032995153219e-02   8.026570081711e-03   1.254750415683e-02 
  1.799550838768e-02   2.352807298303e-02   2.795062400401e-02   3.024782054126e-02   3.018269129097e-02   2.847513370216e-02   2.637743204832e-02   2.502214536071e-02   2.502214536071e-02 
  2.637743204832e-02   2.847513370216e-02   3.018269129097e-02   3.024782054126e-02   2.795062400401e-02   2.352807298303e-02   1.799550838768e-02   1.254750415683e-02   8.026570081711e-03 
  5.871792323887e-03   9.348415769637e-03   1.378628890961e-02   1.875930279493e-02   2.352807298303e-02   2.729354612529e-02   2.957056462765e-02   3.042895719409e-02   3.040994144976e-02 
  3.018269129097e-02   3.018269129097e-02   3.040994144976e-02   3.042895719409e-02   2.957056462765e-02   2.729354612529e-02   2.352807298303e-02   1.875930279493e-02   1.378628890961e-02 
  9.348415769637e-03   5.871792323887e-03   4.039997700602e-03   6.523014046252e-03   9.828849695623e-03   1.378628890961e-02   1.799550838768e-02   2.192407660186e-02   2.510034665465e-02 
  2.729354612529e-02   2.855597436428e-02   2.909956127405e-02   2.909956127405e-02   2.855597436428e-02   2.729354612529e-02   2.510034665465e-02   2.192407660186e-02   1.799550838768e-02 
  1.378628890961e-02   9.828849695623e-03   6.523014046252e-03   4.039997700602e-03   2.615465084091e-03   4.263621289283e-03   6.523014046252e-03   9.348415769637e-03   1.254750415683e-02 
  1.580355502665e-02   1.875930279493e-02   2.112203463912e-02   2.272751927376e-02   2.352807298303e-02   2.352807298303e-02   2.272751927376e-02   2.112203463912e-02   1.875930279493e-02 
  1.580355502665e-02   1.254750415683e-02   9.348415769637e-03   6.523014046252e-03   4.263621289283e-03   2.615465084091e-03   1.595829613507e-03   2.615465084091e-03   4.039997700602e-03 
  5.871792323887e-03   8.026570081711e-03   1.032995153219e-02   1.254750415683e-02   1.443791668862e-02   1.580355502665e-02   1.651614345610e-02   1.651614345610e-02   1.580355502665e-02 
  1.443791668862e-02   1.254750415683e-02   1.032995153219e-02   8.026570081711e-03   5.871792323887e-03   4.039997700602e-03   2.615465084091e-03   1.595829613507e-03   3.271311521530e-03 
  5.513512529433e-03   8.756656199694e-03   1.307628676295e-02   1.833869889379e-02   2.415857836604e-02   2.994245663285e-02   3.501288220286e-02   3.875807672739e-02   4.074074327946e-02 
  4.074074327946e-02   3.875807672739e-02   3.501288220286e-02   2.994245663285e-02   2.415857836604e-02   1.833869889379e-02   1.307628676295e-02   8.756656199694e-03   5.513512529433e-03 
  3.271311521530e-03   5.513512529433e-03   9.275609627366e-03   1.464719697833e-02   2.165484800935e-02   2.994245663285e-02   3.875807672739e-02   4.711705446243e-02   5.407902970910e-02 
  5.897910892963e-02   6.148301064968e-02   6.148301064968e-02   5.897910892963e-02   5.407902970910e-02   4.711705446243e-02   3.875807672739e-02   2.994245663285e-02   2.165484800935e-02 
  1.464719697833e-02   9.275609627366e-03   5.513512529433e-03   8.756656199694e-03   1.464719697833e-02   2.287600375712e-02   3.325038030744e-02   4.492207244039e-02   5.650796741247e-02 
  6.654232740402e-02   7.402922958136e-02   7.871522754431e-02   8.088874071836e-02   8.088874071836e-02   7.871522754431e-02   7.402922958136e-02   6.654232740402e-02   5.650796741247e-02 
  4.492207244039e-02   3.325038030744e-02   2.287600375712e-02   1.464719697833e-02   8.756656199694e-03   1.307628676295e-02   2.165484800935e-02   3.325038030744e-02   4.711705446243e-02 
  6.148301064968e-02   7.402922958136e-02   8.290733397007e-02   8.766125142574e-02   8.931676298380e-02   8.954687416553e-02   8.954687416553e-02   8.931676298380e-02   8.766125142574e-02 
  8.290733397007e-02   7.402922958136e-02   6.148301064968e-02   4.711705446243e-02   3.325038030744e-02   2.165484800935e-02   1.307628676295e-02   1.833869889379e-02   2.994245663285e-02 
  4.492207244039e-02   6.148301064968e-02   7.641905546188e-02   8.633414655924e-02   8.954687416553e-02   8.722886443138e-02   8.268160372972e-02   7.938320189714e-02   7.938320189714e-02 
  8.268160372972e-02   8.722886443138e-02   8.954687416553e-02   8.633414655924e-02   7.641905546188e-02   6.148301064968e-02   4.492207244039e-02   2.994245663285e-02   1.833869889379e-02 
  2.415857836604e-02   3.875807672739e-02   5.650796741247e-02   7.402922958136e-02   8.633414655924e-02   8.931011706591e-02   8.268160372972e-02   7.063139230013e-02   5.908539146185e-02 
  5.239897593856e-02   5.239897593856e-02   5.908539146185e-02   7.063139230013e-02   8.268160372972e-02   8.931011706591e-02   8.633414655924e-02   7.402922958136e-02   5.650796741247e-02 
  3.875807672739e-02   2.415857836604e-02   2.994245663285e-02   4.711705446243e-02   6.654232740402e-02   8.290733397007e-02   8.954687416553e-02   8.268160372972e-02   6.518903374672e-02 
  4.524929448962e-02   3.027894161642e-02   2.294840663671e-02   2.294840663671e-02   3.027894161642e-02   4.524929448962e-02   6.518903374672e-02   8.268160372972e-02   8.954687416553e-02 
  8.290733397007e-02   6.654232740402e-02   4.711705446243e-02   2.994245663285e-02   3.501288220286e-02   5.407902970910e-02   7.402922958136e-02   8.766125142574e-02   8.722886443138e-02 
  7.063139230013e-02   4.524929448962e-02   2.294840663671e-02   1.017438247800e-02   5.424190778285e-03   5.424190778285e-03   1.017438247800e-02   2.294840663671e-02   4.524929448962e-02 
  7.063139230013e-02   8.722886443138e-02   8.766125142574e-02   7.402922958136e-02   5.407902970910e-02   3.501288220286e-02   3.875807672739e-02   5.897910892963e-02   7.871522754431e-02 
  8.931676298380e-02   8.268160372972e-02   5.908539146185e-02   3.027894161642e-02   1.017438247800e-02   2.151803812012e-03   4.424285725690e-04   4.424285725690e-04   2.151803812012e-03 
  1.017438247800e-02   3.027894161642e-02   5.908539146185e-02   8.268160372972e-02   8.931676298380e-02   7.871522754431e-02   5.897910892963e-02   3.875807672739e-02   4.074074327946e-02 
  6.148301064968e-02   8.088874071836e-02   8.954687416553e-02   7.938320189714e-02   5.239897593856e-02   2.294840663671e-02   5.424190778285e-03   4.424285725690e-04   4.257407454133e-06 
  4.257407454133e-06   4.424285725690e-04   5.424190778285e-03   2.294840663671e-02   5.239897593856e-02   7.938320189714e-02   8.954687416553e-02   8.088874071836e-02   6.148301064968e-02 
  4.074074327946e-02   4.074074327946e-02   6.148301064968e-02   8.088874071836e-02   8.954687416553e-02   7.938320189714e-02   5.239897593856e-02   2.294840663671e-02   5.424190778285e-03 
  4.424285725690e-04   4.257407454133e-06   4.257407454133e-06   4.424285725690e-04   5.424190778285e-03   2.294840663671e-02   5.239897593856e-02   7.938320189714e-02   8.954687416553e-02 
  8.088874071836e-02   6.148301064968e-02   4.074074327946e-02   3.875807672739e-02   5.897910892963e-02   7.871522754431e-02   8.931676298380e-02   8.268160372972e-02   5.908539146185e-02 
  3.027894161642e-02   1.017438247800e-02   2.151803812012e-03   4.424285725690e-04   4.424285725690e-04   2.151803812012e-03   1.017438247800e-02   3.027894161642e-02   5.908539146185e-02 
  8.268160372972e-02   8.931676298380e-02   7.871522754431e-02   5.897910892963e-02   3.875807672739e-02   3.501288220286e-02   5.407902970910e-02   7.402922958136e-02   8.766125142574e-02 
  8.722886443138e-02   7.063139230013e-02   4.524929448962e-02   2.294840663671e-02   1.017438247800e-02   5.424190778285e-03   5.424190778285e-03   1.017438247800e-02   2.294840663671e-02 
  4.524929448962e-02   7.063139230013e-02   8.722886443138e-02   8.766125142574e-02   7.402922958136e-02   5.407902970910e-02   3.501288220286e-02   2.994245663285e-02   4.711705446243e-02 
  6.654232740402e-02   8.290733397007e-02   8.954687416553e-02   8.268160372972e-02   6.518903374672e-02   4.524929448962e-02   3.027894161642e-02   2.294840663671e-02   2.294840663671e-02 
  3.027894161642e-02   4.524929448962e-02   6.518903374672e-02   8.268160372972e-02   8.954687416553e-02   8.290733397007e-02   6.654232740402e-02   4.711705446243e-02   2.994245663285e-02 
  2.415857836604e-02   3.875807672739e-02   5.650796741247e-02   7.402922958136e-02   8.633414655924e-02   8.931011706591e-02   8.268160372972e-02   7.063139230013e-02   5.908539146185e-02 
  5.239897593856e-02   5.239897593856e-02   5.908539146185e-02   7.063139230013e-02   8.268160372972e-02   8.931011706591e-02   8.633414655924e-02   7.402922958136e-02   5.650796741247e-02 
  3.875807672739e-02   2.415857836604e-02   1.833869889379e-02   2.994245663285e-02   4.492207244039e-02   6.148301064968e-02   7.641905546188e-02   8.633414655924e-02   8.954687416553e-02 
  8.722886443138e-02   8.268160372972e-02   7.938320189714e-02   7.938320189714e-02   8.268160372972e-02   8.722886443138e-02   8.954687416553e-02   8.633414655924e-02   7.641905546188e-02 
  6.148301064968e-02   4.492207244039e-02   2.994245663285e-02   1.833869889379e-02   1.307628676295e-02   2.165484800935e-02   3.325038030744e-02   4.711705446243e-02   6.148301064968e-02 
  7.402922958136e-02   8.290733397007e-02   8.766125142574e-02   8.931676298380e-02   8.954687416553e-02   8.954687416553e-02   8.931676298380e-02   8.766125142574e-02   8.290733397007e-02 
  7.402922958136e-02   6.148301064968e-02   4.711705446243e-02   3.325038030744e-02   2.165484800935e-02   1.307628676295e-02   8.756656199694e-03   1.464719697833e-02   2.287600375712e-02 
  3.325038030744e-02   4.492207244039e-02   5.650796741247e-02   6.654232740402e-02   7.402922958136e-02   7.871522754431e-02   8.088874071836e-02   8.088874071836e-02   7.871522754431e-02 
  7.402922958136e-02   6.654232740402e-02   5.650796741247e-02   4.492207244039e-02   3.325038030744e-02   2.287600375712e-02   1.464719697833e-02   8.756656199694e-03   5.513512529433e-03 
  9.275609627366e-03   1.464719697833e-02   2.165484800935e-02   2.994245663285e-02   3.875807672739e-02   4.711705446243e-02   5.407902970910e-02   5.897910892963e-02   6.148301064968e-02 
  6.148301064968e-02   5.897910892963e-02   5.407902970910e-02   4.711705446243e-02   3.875807672739e-02   2.994245663285e-02   2.165484800935e-02   1.464719697833e-02   9.275609627366e-03 
  5.513512529433e-03   3.271311521530e-03   5.513512529433e-03   8.756656199694e-03   1.307628676295e-02   1.833869889379e-02   2.415857836604e-02   2.994245663285e-02   3.501288220286e-02 
  3.875807672739e-02   4.074074327946e-02   4.074074327946e-02   3.875807672739e-02   3.501288220286e-02   2.994245663285e-02   2.415857836604e-02   1.833869889379e-02   1.307628676295e-02 
  8.756656199694e-03   5.513512529433e-03   3.271311521530e-03   6.255311425775e-03   1.083136443049e-02   1.767460443079e-02   2.710399962962e-02   3.898738324642e-02   5.256936699152e-02 
  6.648810207844e-02   7.902263849974e-02   8.848000317812e-02   9.355588257313e-02   9.355588257313e-02   8.848000317812e-02   7.902263849974e-02   6.648810207844e-02   5.256936699152e-02 
  3.898738324642e-02   2.710399962962e-02   1.767460443079e-02   1.083136443049e-02   6.255311425775e-03   1.083136443049e-02   1.878992654383e-02   3.060892410576e-02   4.667270928621e-02 
  6.648810207844e-02   8.848000317812e-02   1.102148815989e-01   1.290240883827e-01   1.426935642958e-01   1.498322188854e-01   1.498322188854e-01   1.426935642958e-01   1.290240883827e-01 
  1.102148815989e-01   8.848000317812e-02   6.648810207844e-02   4.667270928621e-02   3.060892410576e-02   1.878992654383e-02   1.083136443049e-02   1.767460443079e-02   3.060892410576e-02 
  4.953879863024e-02   7.463055849075e-02   1.044213846326e-01   1.357523798943e-01   1.646171808243e-01   1.875955313444e-01   2.029179781675e-01   2.103918790817e-01   2.103918790817e-01 
  2.029179781675e-01   1.875955313444e-01   1.646171808243e-01   1.357523798943e-01   1.044213846326e-01   7.463055849075e-02   4.953879863024e-02   3.060892410576e-02   1.767460443079e-02 
  2.710399962962e-02   4.667270928621e-02   7.463055849075e-02   1.102148815989e-01   1.498322188854e-01   1.875955313444e-01   2.176331728697e-01   2.369424253702e-01   2.465523481369e-01 
  2.499313503504e-01   2.499313503504e-01   2.465523481369e-01   2.369424253702e-01   2.176331728697e-01   1.875955313444e-01   1.498322188854e-01   1.102148815989e-01   7.463055849075e-02 
  4.667270928621e-02   2.710399962962e-02   3.898738324642e-02   6.648810207844e-02   1.044213846326e-01   1.498322188854e-01   1.952950209379e-01   2.310232818127e-01   2.499313503504e-01 
  2.522383630276e-01   2.453277707100e-01   2.387673258781e-01   2.387673258781e-01   2.453277707100e-01   2.522383630276e-01   2.499313503504e-01   2.310232818127e-01   1.952950209379e-01 
  1.498322188854e-01   1.044213846326e-01   6.648810207844e-02   3.898738324642e-02   5.256936699152e-02   8.848000317812e-02   1.357523798943e-01   1.875955313444e-01   2.310232818127e-01 
  2.521304190159e-01   2.453277707100e-01   2.186553627253e-01   1.887117028236e-01   1.701596081257e-01   1.701596081257e-01   1.887117028236e-01   2.186553627253e-01   2.453277707100e-01 
  2.521304190159e-01   2.310232818127e-01   1.875955313444e-01   1.357523798943e-01   8.848000317812e-02   5.256936699152e-02   6.648810207844e-02   1.102148815989e-01   1.646171808243e-01 
  2.176331728697e-01   2.499313503504e-01   2.453277707100e-01   2.049161344767e-01   1.495134681463e-01   1.038339138031e-01   8.027931302786e-02   8.027931302786e-02   1.038339138031e-01 
  1.495134681463e-01   2.049161344767e-01   2.453277707100e-01   2.499313503504e-01   2.176331728697e-01   1.646171808243e-01   1.102148815989e-01   6.648810207844e-02   7.902263849974e-02 